<?xml version="1.0"?>
<VTKFile type="UnstructuredGrid" version="0.1" byte_order="LittleEndian">
  <UnstructuredGrid>
    <Piece NumberOfCells="7500" NumberOfPoints="7701">
      <CellData Scalars="S_aq">
        <DataArray type="Float32" Name="S_aq" NumberOfComponents="1" format="ascii">
          1 1 1 1 1 1 1 1 1 1 1 1
          1 1 1 1 1 1 1 1 1 1 1 1
          1 1 1 1 1 1 1 0.9811 1 1 1 1
          1 1 1 1 1 1 1 1 0.982 1 1 1
          1 1 1 1 1 1 1 0.9866 0.9918 1 0.9987 1
          1 1 1 1 1 1 1 1 1 1 1 1
          1 1 0.9986 1 1 1 1 1 1 1 1 1
          1 1 1 1 1 1 1 1 1 1 0.9894 0.9876
          1 1 1 1 1 1 1 1 1 1 1 1
          1 0.9974 0.9941 1 1 1 1 1 1 1 0.986 1
          1 1 1 1 1 1 1 1 0.9893 1 1 0.981
          1 1 1 1 1 1 1 1 1 1 1 1
          1 1 1 1 1 1 1 1 1 1 1 1
          1 1 0.986 1 1 1 1 1 1 1 1 1
          1 1 1 1 1 1 1 1 1 1 1 0.9802
          0.9804 1 1 1 1 1 1 0.9934 1 1 0.9909 1
          1 1 1 1 1 0.9955 1 1 1 1 1 1
          1 1 1 0.9803 0.9973 0.9886 1 1 1 0.9962 1 1
          1 1 1 0.9941 1 0.9812 0.9956 0.9899 1 0.9915 1 0.9962
          1 1 1 1 1 1 1 1 0.9817 1 1 1
          1 1 1 1 1 1 0.9973 1 1 1 1 1
          1 1 1 1 1 0.9933 1 1 1 1 1 1
          1 1 1 1 1 1 1 1 1 1 1 1
          1 1 1 1 1 1 1 1 1 1 1 1
          1 0.9822 1 1 1 1 1 1 1 1 1 1
          1 1 1 0.9923 1 1 1 0.9948 1 1 0.9916 0.9846
          0.9908 1 1 1 0.9859 1 1 1 1 1 1 1
          1 1 1 0.9943 1 1 1 1 1 1 1 0.9839
          1 1 1 1 1 1 1 1 1 1 1 1
          1 0.9868 1 1 1 1 0.9952 1 1 1 1 1
          1 1 1 1 0.9822 1 1 1 0.9811 1 1 1
          1 1 1 1 1 1 1 1 1 0.9855 1 1
          1 1 1 1 1 1 1 1 0.9988 1 1 1
          1 1 1 1 1 1 1 1 1 1 1 1
          1 1 1 1 1 1 1 1 1 1 1 1
          1 1 1 1 1 1 0.9972 1 1 1 1 1
          1 1 1 1 1 1 1 0.9823 1 1 1 1
          1 1 1 1 1 1 1 1 1 1 1 1
          1 1 1 1 1 1 1 1 1 1 0.9955 1
          1 1 1 1 1 1 1 1 1 1 1 1
          1 0.9831 1 1 1 1 1 0.9954 1 1 1 1
          1 1 1 1 1 1 1 1 1 1 1 1
          1 1 0.984 0.99 1 1 1 1 1 1 1 1
          1 1 1 1 1 1 1 1 1 1 1 1
          1 1 1 1 1 1 1 1 1 1 1 0.9902
          0.9875 1 1 1 1 1 1 1 1 1 1 1
          1 1 1 1 1 1 1 1 1 1 1 1
          1 1 0.9951 1 1 0.996 1 1 0.9995 1 1 1
          1 1 1 1 1 1 1 1 1 1 1 1
          1 1 1 0.9946 1 1 1 1 1 0.9884 1 1
          1 1 1 1 1 1 1 1 1 1 0.9982 1
          1 1 1 1 1 1 0.9981 1 1 1 1 1
          1 1 1 1 1 1 1 1 1 1 1 1
          1 1 1 1 1 1 1 1 1 0.9845 1 1
          1 1 1 1 1 0.9824 1 1 1 1 1 1
          1 1 1 1 1 1 1 1 0.9833 1 1 1
          0.999 1 1 1 1 1 1 1 1 1 1 1
          1 1 0.9912 1 0.9932 1 1 1 1 1 1 1
          0.9818 1 1 1 1 1 1 1 1 1 1 0.9867
          1 1 1 1 1 1 1 1 1 1 0.9837 1
          1 1 1 1 1 1 1 1 1 1 1 1
          1 1 1 0.991 1 1 1 1 1 1 1 1
          1 1 0.9804 1 1 1 1 1 1 1 1 1
          1 1 1 1 1 1 1 1 1 0.9858 1 1
          1 1 1 1 1 1 0.9982 1 1 1 1 1
          1 1 1 1 1 0.9878 0.994 1 1 1 1 1
          0.986 1 1 0.98 1 0.9855 0.983 1 1 1 1 0.9825
          1 0.9853 1 1 1 1 1 1 1 1 1 1
          0.9829 1 1 1 1 1 1 1 1 1 1 1
          1 1 1 1 1 1 1 1 1 1 1 1
          1 1 1 1 1 1 0.9819 1 1 0.9936 0.9878 0.9829
          1 1 1 1 1 1 0.9931 0.9926 1 1 1 1
          1 1 1 1 1 1 1 1 1 1 1 1
          1 0.9846 1 1 1 1 1 0.9954 1 1 1 1
          1 1 1 1 1 1 1 1 1 1 1 1
          1 1 1 1 1 1 1 1 1 1 1 1
          1 1 0.9857 1 0.9936 1 1 1 1 1 1 1
          1 1 1 1 1 0.9867 1 1 1 1 1 1
          1 1 1 1 1 1 1 1 1 1 1 1
          1 1 1 1 1 1 1 1 1 1 1 1
          1 0.9912 1 1 1 1 1 1 1 1 1 1
          1 1 1 1 1 1 0.9919 0.9959 1 1 1 1
          1 1 1 1 1 0.9836 1 1 1 1 1 1
          1 0.9939 1 1 1 1 0.9886 1 1 1 0.9844 0.9856
          1 1 1 1 0.9937 1 0.9861 1 1 1 0.988 1
          1 1 1 1 1 1 1 1 1 1 1 1
          1 1 1 1 1 1 1 1 1 1 1 1
          1 1 1 1 1 1 0.9976 1 1 0.9945 1 1
          1 1 1 1 1 1 0.9994 1 1 1 1 1
          1 1 1 1 1 1 1 1 1 1 1 1
          1 1 1 1 1 1 1 1 1 1 1 1
          1 1 1 1 1 1 1 1 1 1 1 1
          1 1 1 0.9873 1 1 1 1 1 0.9825 1 1
          1 1 1 1 1 1 1 1 1 1 1 1
          1 1 1 1 1 1 1 1 1 1 1 1
          0.9972 1 1 1 1 1 1 1 1 1 1 1
          1 1 1 1 1 1 1 1 1 0.9941 1 1
          1 1 1 1 1 1 1 1 1 0.9861 1 1
          1 1 1 1 1 1 0.9876 1 1 1 1 1
          0.9911 1 1 0.9959 1 1 1 1 1 1 0.9869 1
          1 1 1 1 1 1 1 1 1 1 1 1
          1 1 1 1 1 1 1 1 1 1 0.98 1
          1 1 1 1 1 1 1 1 1 0.9877 1 0.9813
          1 1 1 0.9967 1 1 1 1 1 0.9932 1 1
          0.9913 1 1 1 1 1 1 1 0.9891 1 1 1
          1 1 1 1 1 1 1 1 0.9861 1 1 1
          1 1 1 1 1 1 1 1 1 1 1 0.9866
          1 1 1 1 1 1 1 1 1 1 0.9988 1
          1 0.9901 1 1 1 1 1 1 1 1 1 1
          0.9811 0.9981 1 1 1 1 0.9942 1 1 0.9869 1 1
          1 1 1 1 1 0.999 1 1 1 1 1 0.9985
          1 1 1 1 1 0.9905 1 0.9834 1 1 1 0.9991
          1 1 1 1 1 1 1 0.9872 1 0.9996 1 1
          1 1 1 1 1 1 1 0.9823 1 1 1 1
          1 1 1 1 1 1 1 1 1 1 1 1
          1 1 1 1 1 1 1 1 1 1 1 1
          1 1 1 0.9862 1 1 0.9953 1 0.9963 1 1 1
          1 1 0.9987 1 1 0.9933 0.9926 0.9989 1 1 1 1
          1 1 0.9919 0.9962 1 1 1 1 1 1 1 0.9871
          1 0.9878 1 1 1 1 1 1 1 1 1 0.9842
          0.9823 1 0.9978 0.9952 1 1 1 1 1 0.9957 1 1
          1 1 1 1 1 1 0.9923 1 1 1 1 0.9977
          1 1 1 1 1 1 0.9803 1 1 1 0.9917 1
          1 1 0.9937 1 1 1 0.9907 1 1 1 1 1
          1 1 1 1 0.9944 1 1 1 0.9836 1 1 1
          1 0.9927 0.9842 1 1 1 1 1 1 1 1 1
          1 1 1 1 1 1 1 1 1 1 1 1
          1 1 1 1 1 1 0.9842 1 1 1 1 1
          1 1 1 1 1 1 0.9956 1 1 1 1 1
          1 1 1 1 1 1 0.9806 0.9973 1 1 1 0.9916
          1 1 1 1 1 1 1 1 1 1 1 1
          1 1 1 1 1 0.9925 1 1 1 1 0.9905 1
          1 1 1 0.9988 1 1 1 1 1 1 1 1
          1 1 1 1 1 1 1 1 1 1 1 1
          1 1 1 0.9818 1 1 1 1 1 1 1 1
          1 1 1 1 1 1 1 1 1 1 1 1
          1 1 1 1 1 1 0.999 1 1 1 1 1
          1 1 1 0.9928 1 0.9967 1 0.9879 1 1 1 1
          1 1 1 0.9828 0.9877 1 1 1 1 1 1 1
          1 1 1 0.9985 0.9811 1 1 0.9929 1 1 1 1
          1 1 1 1 1 1 1 1 1 1 1 1
          1 1 1 1 1 1 1 0.9923 0.9995 1 1 1
          1 1 1 1 1 1 0.9901 1 0.9952 1 1 1
          1 1 1 1 1 1 1 0.9846 1 1 0.9925 1
          1 1 1 1 1 1 1 1 1 1 1 1
          1 1 1 1 1 1 1 1 1 1 0.9861 1
          1 1 1 1 1 1 1 1 1 1 1 1
          1 1 1 1 1 1 1 1 1 0.9837 1 1
          1 1 1 1 1 1 0.9878 1 1 1 1 1
          1 1 1 1 1 1 1 1 1 1 1 1
          1 1 1 1 1 1 1 1 1 1 0.9826 1
          1 1 1 0.9972 1 0.9918 1 1 1 1 1 1
          1 1 1 1 1 1 1 0.9839 1 0.9892 1 1
          1 1 1 1 1 1 1 1 1 1 1 1
          1 1 1 1 1 1 1 1 1 1 1 1
          1 1 1 1 1 1 1 1 1 1 1 1
          1 1 1 0.9909 1 1 1 1 1 0.9965 1 1
          1 1 1 1 1 1 1 1 1 1 1 1
          0.9835 1 1 1 1 1 1 0.9948 1 1 1 1
          1 1 1 1 1 1 1 1 1 1 1 1
          1 0.9996 1 1 1 1 1 1 1 1 0.9843 1
          1 1 1 1 1 1 1 1 1 1 1 1
          1 1 1 1 1 0.989 1 1 1 1 1 1
          1 1 1 1 1 0.9889 1 1 0.9908 1 1 1
          1 1 0.991 1 1 1 1 1 1 1 1 1
          1 0.9833 1 1 1 1 1 1 1 1 1 1
          1 0.9924 1 1 1 1 1 1 1 1 1 1
          1 1 1 1 1 1 1 1 1 1 1 1
          1 1 1 1 1 1 1 1 1 1 1 1
          1 1 1 1 1 1 1 1 1 1 1 1
          1 1 0.9855 0.9816 1 1 1 1 1 1 1 1
          1 1 1 1 1 1 1 1 1 1 1 1
          1 1 1 1 1 1 1 1 1 1 0.9852 1
          1 1 1 1 1 1 1 1 1 1 1 1
          1 1 1 1 1 1 1 0.9809 1 1 1 1
          1 1 1 1 1 0.982 1 1 1 1 1 1
          0.9977 1 1 1 1 1 0.9842 1 1 1 1 1
          1 1 1 1 1 1 1 1 1 0.984 1 1
          1 1 1 1 1 1 1 1 1 1 0.9954 1
          1 1 0.9969 1 1 0.9924 1 1 1 1 1 1
          1 1 1 1 1 0.9963 1 1 1 1 1 1
          0.9885 1 1 1 0.9897 1 1 1 1 1 1 1
          1 1 0.9859 1 1 1 1 1 1 1 1 0.9948
          1 1 1 1 1 1 1 1 1 1 1 1
          1 1 1 1 1 1 1 1 1 0.9974 1 1
          1 1 1 1 1 1 1 1 1 0.9955 1 1
          0.9884 1 1 1 1 1 0.9994 1 1 1 1 1
          1 1 1 0.9874 1 1 0.9884 1 1 1 1 1
          1 0.9871 1 1 1 0.9821 1 1 1 1 1 1
          1 1 1 1 1 1 1 0.9858 1 1 1 1
          1 1 1 1 1 1 1 0.9822 1 1 1 1
          1 1 1 1 1 1 1 1 1 1 1 1
          1 1 0.9999 1 0.9967 1 1 1 1 1 1 1
          1 1 1 1 1 1 1 1 1 1 1 1
          1 1 1 1 1 0.9802 1 1 0.9874 1 1 1
          1 1 1 0.995 1 1 1 1 1 0.9884 1 0.9814
          1 1 1 1 1 1 1 1 1 1 1 0.9844
          1 1 1 1 1 1 1 1 1 1 1 1
          1 1 1 1 1 1 1 1 1 1 1 1
          1 1 1 0.9849 0.9972 1 1 1 1 1 1 1
          1 0.9941 1 1 1 1 1 1 1 1 1 1
          1 1 1 1 1 1 1 1 1 1 1 1
          1 1 1 1 1 1 1 1 1 1 1 1
          1 1 1 1 1 1 0.9968 1 1 1 1 1
          1 0.9995 1 1 1 1 1 1 1 1 1 1
          1 0.9931 1 1 1 1 1 1 1 1 1 1
          1 1 1 1 1 1 1 1 0.9965 1 1 1
          0.9826 1 1 1 1 1 1 1 1 0.9808 1 1
          1 1 1 0.992 1 0.9836 0.9872 1 0.9963 1 1 1
          1 1 1 1 1 1 1 1 1 1 1 1
          1 1 1 1 1 0.9854 1 1 1 1 1 1
          1 1 1 1 1 1 1 1 1 1 1 1
          0.9901 1 1 1 1 1 1 1 1 1 1 1
          1 1 1 0.9932 1 1 1 1 1 0.985 1 1
          1 1 1 0.9804 1 1 1 1 1 0.9957 1 0.9913
          1 1 1 1 1 1 1 1 0.9809 1 1 1
          1 0.9976 1 1 1 1 0.9992 1 1 1 1 1
          1 1 1 1 0.9955 1 1 1 1 1 1 0.9931
          1 0.9842 1 1 0.9928 1 1 0.9849 1 1 1 1
          0.9838 1 1 1 1 1 1 1 0.9918 1 1 0.993
          1 1 1 0.9813 1 1 1 1 1 1 1 1
          1 1 1 0.9998 1 0.9832 1 1 1 1 1 1
          1 1 1 1 1 1 1 1 1 1 0.9963 0.9916
          1 1 0.9832 1 1 1 1 1 1 1 1 1
          1 1 1 1 1 1 1 1 1 1 1 1
          1 1 1 1 1 1 1 1 1 1 0.9921 1
          1 0.9882 1 1 1 1 1 1 1 1 1 0.9909
          1 1 0.9924 1 0.989 1 1 1 1 1 1 1
          1 0.9867 0.9911 1 1 1 1 1 1 1 1 1
          1 1 1 1 1 1 1 1 1 1 1 1
          1 1 1 1 1 1 1 1 1 1 1 0.9871
          1 1 1 1 1 1 1 1 1 1 1 0.9864
          1 1 0.9913 1 1 0.9828 1 1 1 0.9886 1 1
          1 1 1 1 0.9802 1 1 1 1 1 1 1
          1 1 1 1 0.9937 1 1 1 1 1 1 1
          1 1 1 0.9998 1 1 1 1 1 0.991 1 1
          1 1 0.9968 1 1 1 1 1 1 1 1 1
          1 1 1 0.9885 1 1 1 1 1 0.9838 1 1
          1 1 1 0.9915 1 1 1 1 1 1 1 1
          1 1 0.9933 1 1 1 0.9905 1 1 0.9964 1 1
          0.9876 1 1 1 1 0.9911 1 0.9805 1 1 1 1
          1 1 1 1 1 1 1 1 1 1 1 1
          1 0.9966 1 0.9872 1 1 1 1 1 0.9972 1 1
          1 1 0.9849 1 1 1 1 0.9887 1 1 0.9833 1
          1 1 1 1 1 1 1 1 1 1 1 1
          1 1 1 1 0.9849 1 1 1 1 1 1 1
          1 1 1 1 1 1 1 1 1 1 1 1
          1 1 1 1 1 1 1 1 1 1 1 1
          1 1 1 0.9833 0.9994 1 0.9854 1 0.9949 1 1 1
          1 1 1 1 1 1 0.9945 1 0.9923 1 0.9985 1
          1 1 1 1 1 1 1 1 1 1 1 1
          1 1 1 1 1 1 1 1 0.9907 1 1 1
          1 1 1 1 1 1 0.9973 1 1 1 0.9991 1
          1 1 1 1 1 0.989 1 1 1 1 1 1
          1 1 0.9995 1 1 1 1 1 1 1 1 1
          1 1 1 1 1 1 1 1 1 1 1 1
          1 1 1 1 1 1 1 1 1 1 1 1
          1 1 1 1 1 1 1 1 1 1 1 1
          1 0.987 0.9883 1 1 0.9837 1 1 1 1 1 1
          1 1 1 1 1 1 1 1 1 1 0.9804 1
          1 1 0.9876 1 1 1 1 1 1 1 1 1
          1 1 1 1 1 1 1 1 1 1 1 1
          1 1 1 1 1 1 1 1 1 1 1 1
          1 1 1 0.9919 1 1 1 1 1 1 1 1
          1 1 1 1 1 0.9805 1 1 1 1 1 1
          1 0.9943 1 1 1 1 1 1 1 1 1 1
          1 0.9906 1 1 1 1 1 1 1 1 1 1
          0.9808 1 1 1 1 1 1 1 1 1 1 1
          1 0.9975 0.989 1 0.9969 1 1 1 1 1 1 1
          1 0.9894 1 1 1 1 1 1 1 1 1 1
          1 1 1 1 1 1 1 1 1 1 1 1
          0.999 1 1 1 1 1 1 1 1 1 1 0.9923
          1 1 0.9834 1 1 1 1 1 1 1 0.9962 1
          1 1 1 1 1 1 1 1 1 1 1 1
          1 1 1 1 0.9825 1 0.9874 1 1 1 1 1
          1 1 1 1 1 1 1 1 1 1 1 1
          0.9852 1 1 1 1 1 1 1 1 1 1 1
          0.9971 1 1 1 1 1 1 1 1 1 1 0.992
          1 0.9833 1 1 1 1 0.9997 1 1 1 1 1
          0.9906 0.9961 1 1 1 1 0.999 1 1 1 1 1
          1 0.9925 1 1 1 1 0.9982 1 1 1 1 1
          1 1 1 1 1 1 1 1 1 1 1 1
          1 0.9827 1 1 1 1 1 1 1 1 1 1
          1 1 1 0.9813 1 1 1 0.9949 1 1 1 1
          1 1 1 1 1 1 1 1 1 1 1 0.999
          1 1 1 1 1 1 1 1 1 1 1 1
          1 0.9811 1 1 1 1 1 1 1 0.987 0.9818 1
          1 1 1 1 1 1 1 1 0.9901 1 1 1
          1 0.9941 1 1 1 1 1 1 1 0.9919 1 1
          0.9928 1 1 1 1 1 1 0.9949 1 1 1 0.9845
          1 1 1 1 1 1 1 1 1 1 1 1
          1 1 1 1 1 1 1 1 1 1 1 1
          0.9931 1 1 1 1 1 1 1 1 1 1 1
          1 1 1 1 1 1 1 1 1 1 1 1
          1 1 0.9953 1 1 1 1 1 1 1 1 1
          1 1 1 1 1 1 1 1 0.9946 1 1 1
          1 0.9931 1 1 1 1 1 1 1 1 1 1
          1 1 1 1 1 1 1 1 1 1 1 1
          1 1 1 1 1 1 1 1 1 1 1 1
          1 1 1 1 1 1 1 1 1 0.9858 1 1
          1 1 1 1 0.9825 1 1 1 1 1 1 1
          1 0.9876 1 1 1 1 1 1 1 1 0.9973 1
          1 1 1 1 0.9938 1 1 1 0.9846 1 1 1
          1 1 1 0.9827 1 1 1 1 1 1 1 1
          1 1 1 0.993 1 1 1 1 1 1 1 1
          1 1 0.9864 1 1 1 1 1 1 1 1 1
          1 1 1 1 1 1 1 0.9901 0.9953 1 1 1
          1 1 1 0.9862 1 1 1 1 1 1 0.9943 1
          1 1 1 0.9819 0.9815 1 1 1 1 1 1 1
          1 1 1 1 0.9996 1 1 1 1 0.999 1 1
          1 1 1 1 1 1 1 1 1 1 1 1
          1 1 1 1 1 0.9963 0.9881 1 1 1 1 1
          1 1 1 1 1 1 1 1 1 0.9862 1 1
          1 1 1 1 1 1 1 1 1 1 1 0.9837
          1 1 1 1 0.9947 1 1 1 1 0.9937 1 1
          1 1 1 1 1 1 1 1 0.99 1 1 1
          1 1 1 1 1 1 1 1 1 0.9989 1 0.9866
          1 1 1 0.9986 1 1 1 1 1 1 1 1
          1 1 1 0.9844 1 1 1 1 1 1 1 1
          1 1 0.9949 1 0.9924 1 1 0.9841 1 1 1 1
          1 1 1 1 1 1 1 1 1 1 1 1
          1 1 1 0.995 1 1 1 1 1 1 1 1
          1 1 1 1 1 1 1 1 1 1 1 1
          0.9953 1 1 1 1 1 1 1 1 1 1 0.981
          1 1 1 0.9845 1 1 0.9811 1 1 1 1 1
          1 1 0.9948 1 1 1 0.9985 1 1 1 1 0.9905
          1 1 1 0.9917 0.9937 0.9969 1 1 1 1 0.9817 1
          1 1 1 1 0.9901 1 1 1 1 1 1 1
          1 1 1 0.9921 1 1 1 1 1 1 1 1
          1 1 1 1 1 1 1 1 1 1 1 0.9837
          1 1 1 1 1 1 1 1 1 1 1 1
          1 1 1 1 1 0.9913 1 1 1 1 1 1
          1 1 1 1 1 1 1 1 1 1 1 1
          1 1 1 1 1 1 1 1 1 0.9845 1 1
          1 0.9801 1 1 1 1 1 1 1 1 1 1
          1 1 1 1 1 1 1 1 1 1 1 1
          1 1 1 1 1 1 1 1 1 1 1 1
          1 1 1 0.9878 1 1 1 1 1 1 1 0.9895
          1 1 1 1 1 1 0.9913 0.9899 1 1 1 1
          1 1 1 1 1 1 0.996 1 1 1 1 1
          1 0.9981 1 1 1 1 1 1 1 1 1 1
          1 1 1 0.9861 1 1 1 1 1 0.9996 1 1
          1 1 1 1 1 1 1 1 1 1 1 0.9977
          1 1 1 1 1 1 1 1 1 1 1 1
          1 1 1 1 1 1 1 1 1 1 0.9946 1
          1 1 0.9963 1 1 1 1 1 1 1 1 1
          1 1 1 1 1 1 1 1 0.9989 1 1 1
          1 1 1 1 1 1 0.9988 1 1 0.9807 1 1
          1 0.9836 1 1 1 1 1 1 1 1 1 1
          1 1 0.9967 1 1 1 1 1 1 1 1 1
          1 1 1 0.9887 1 1 1 1 1 1 1 1
          0.9801 1 1 1 1 1 1 1 1 1 1 1
          1 1 1 1 1 1 1 1 1 1 1 1
          1 1 1 1 1 1 1 1 0.9829 0.9819 1 1
          1 1 1 1 1 1 0.9951 1 1 1 1 1
          0.9895 0.992 1 1 0.9917 1 0.9827 1 1 1 1 1
          1 1 1 1 1 1 1 1 1 1 1 1
          1 1 1 1 1 1 1 1 1 1 1 1
          1 1 1 1 1 1 1 1 1 1 1 1
          0.9834 1 1 1 0.9979 1 0.9951 1 1 0.9872 1 1
          1 1 1 0.9839 1 1 0.9918 1 1 1 1 1
          1 1 1 1 1 1 1 1 1 1 1 1
          1 1 1 1 1 1 1 1 1 1 1 1
          0.9975 1 1 0.9879 1 1 1 1 1 1 1 1
          1 1 1 1 1 1 0.9896 1 1 1 1 1
          1 1 1 1 1 1 1 1 1 0.9834 1 0.988
          1 1 1 1 1 1 1 1 1 1 1 1
          1 1 1 1 1 1 1 1 1 1 1 1
          0.9968 1 1 1 1 1 1 1 1 1 1 0.9845
          1 1 1 1 1 1 1 1 1 1 1 1
          1 1 1 1 1 1 1 1 1 0.9937 1 1
          1 1 1 1 1 1 1 1 1 1 1 1
          1 1 1 1 1 1 1 1 1 1 1 0.9961
          1 1 1 1 1 1 1 1 0.9934 1 1 0.985
          1 1 1 1 1 1 1 1 1 1 1 0.9957
          1 1 1 1 1 1 1 1 1 1 1 1
          1 1 1 0.9932 1 1 1 1 1 1 1 1
          1 1 1 1 1 1 1 1 1 1 1 1
          0.9888 1 1 1 1 0.9841 0.9908 1 1 1 1 1
          1 1 1 1 1 1 1 0.9843 1 1 1 1
          1 1 1 1 1 0.9932 1 1 1 1 1 1
          1 0.9953 1 1 0.98 1 1 1 1 1 0.9981 1
          1 1 1 0.9801 1 1 1 1 1 1 1 0.9847
          1 1 1 1 1 1 1 1 1 1 0.9839 1
          1 0.9908 1 1 1 1 1 1 1 1 1 1
          1 1 1 1 1 1 1 1 1 1 0.9898 0.9981
          1 1 1 1 1 1 1 1 1 1 1 1
          1 1 1 1 1 1 1 1 1 1 0.9968 1
          0.9812 1 1 1 1 1 1 1 1 1 1 1
          1 1 1 1 1 1 1 1 1 0.9952 1 1
          1 1 1 1 1 1 1 1 0.9862 1 1 1
          1 1 1 1 1 1 1 0.9882 1 1 1 1
          1 0.9953 1 1 1 1 1 1 1 1 1 0.999
          1 1 1 1 1 1 1 1 0.9939 1 1 1
          1 1 1 1 1 1 1 1 1 1 1 1
          1 1 1 1 1 1 1 0.9847 1 1 1 1
          1 1 1 1 1 0.9941 1 1 1 1 1 1
          1 1 1 1 1 1 1 1 1 1 1 1
          1 1 1 1 0.9939 1 1 1 1 1 1 0.9964
          1 1 0.983 1 1 1 1 1 1 1 1 1
          1 1 1 0.9995 1 1 1 1 1 1 1 1
          1 1 1 1 1 1 1 1 1 0.9985 1 1
          1 1 0.9914 1 1 1 1 1 1 1 1 1
          1 1 1 1 1 1 1 1 1 1 1 1
          1 0.9817 1 1 1 1 1 1 1 1 1 1
          1 1 1 1 0.9862 0.994 1 1 1 1 1 1
          1 1 1 1 1 0.9873 1 1 1 1 1 1
          1 1 0.9844 1 1 1 1 0.9835 1 1 0.9875 1
          1 1 1 1 1 1 1 1 1 1 1 1
          1 1 1 1 1 1 1 1 1 1 1 1
          1 1 1 1 1 1 1 1 0.9918 1 1 1
          0.9989 0.9877 1 1 1 1 1 1 1 1 1 0.9922
          1 1 1 1 1 1 1 1 1 1 1 1
          1 1 1 1 1 0.9903 1 1 1 1 1 1
          0.991 1 0.9878 1 1 1 1 1 1 1 1 1
          1 1 0.9889 1 1 1 1 1 1 0.9904 1 1
          1 1 1 1 1 0.9863 1 1 1 1 1 1
          1 1 1 1 1 1 1 1 1 1 1 0.9884
          1 1 1 1 1 1 1 1 1 1 1 1
          1 1 1 1 1 1 1 1 1 1 1 1
          1 1 0.9865 1 1 1 0.9871 1 1 1 1 1
          1 1 1 0.9899 1 1 1 1 1 1 1 1
          1 0.9812 1 1 1 1 1 1 1 1 1 1
          1 1 1 1 1 1 1 1 1 1 1 1
          1 1 1 1 1 0.9904 0.9974 1 1 1 1 1
          1 1 1 1 1 1 1 1 1 1 1 1
          1 1 1 1 0.9869 1 1 1 0.9857 1 1 1
          0.9847 1 1 1 0.9972 1 1 1 1 1 0.9887 1
          1 1 1 1 1 1 1 1 1 1 1 1
          1 1 1 1 1 1 1 1 1 1 1 1
          0.9887 1 1 1 1 1 0.9855 1 1 1 1 1
          1 1 1 1 1 1 1 1 1 1 1 1
          0.9937 1 0.9958 1 1 1 1 1 1 1 1 1
          1 1 1 1 1 1 1 1 1 0.989 1 1
          0.9873 1 0.98 1 1 1 0.9966 1 0.9923 1 0.9888 1
          1 0.9942 1 1 1 1 1 1 1 1 1 1
          1 1 1 1 0.9888 1 1 1 1 1 1 1
          1 1 1 1 1 1 1 1 1 1 1 1
          1 1 1 1 1 1 1 1 1 1 0.9976 0.9905
          1 0.994 1 1 1 1 1 1 0.9803 1 1 1
          1 0.9901 0.984 0.9942 1 1 1 1 1 1 1 1
          1 1 1 1 1 0.9837 1 1 1 1 1 1
          1 1 1 1 1 1 1 1 1 1 1 1
          1 1 1 1 1 1 1 1 1 1 1 1
          1 1 1 1 0.9867 1 1 1 0.981 1 0.9851 1
          1 1 1 1 1 0.9828 1 1 1 1 1 0.9888
          1 1 1 1 1 0.9857 1 1 1 1 1 1
          1 1 1 1 1 1 1 1 1 1 1 1
          1 1 0.99 1 1 1 1 1 1 1 1 1
          1 1 1 0.9933 1 1 1 1 1 1 1 1
          1 1 1 0.9833 1 1 1 1 1 1 1 1
          1 0.9892 1 0.9945 1 1 1 1 1 1 1 1
          1 0.9803 1 1 1 1 1 1 1 1 1 1
          1 0.9894 1 1 1 0.9937 1 1 1 1 0.9918 0.9906
          1 0.995 1 1 1 1 1 1 1 1 1 1
          1 1 1 0.996 1 1 1 1 1 1 1 1
          0.9874 0.9846 1 1 1 1 1 1 0.9816 1 0.996 1
          1 1 1 0.9817 0.9937 1 1 1 1 1 1 1
          1 1 1 1 1 1 1 1 1 1 1 1
          1 1 0.9937 1 1 1 1 1 1 1 1 1
          1 1 1 1 1 1 0.9847 1 1 1 1 1
          1 0.9999 1 1 1 1 1 1 1 1 1 0.9867
          1 1 1 0.9955 1 1 1 1 1 1 1 1
          0.9926 1 1 1 1 1 1 0.9807 1 1 1 1
          1 1 1 1 1 1 1 1 0.9868 1 1 1
          1 1 1 1 1 1 1 1 0.9839 1 1 0.9818
          1 1 1 1 1 1 1 0.9966 1 0.9998 1 1
          1 1 1 1 1 1 1 0.9956 1 1 1 1
          1 1 1 1 1 1 1 1 1 1 1 1
          1 1 0.9916 1 1 1 1 1 1 1 1 1
          0.9811 1 1 1 1 1 1 1 1 1 0.987 1
          1 1 1 1 1 1 1 1 1 0.9882 1 1
          1 1 1 1 1 0.9923 1 1 1 1 1 1
          1 1 1 0.9923 0.9865 1 1 1 0.9805 1 1 1
          0.9972 1 1 1 1 1 1 1 1 1 1 1
          1 1 1 1 1 1 1 1 1 1 1 1
          1 1 1 1 1 1 1 1 1 1 1 1
          1 0.9905 1 1 1 1 1 0.9868 0.9847 1 1 1
          0.9843 1 1 1 1 1 1 1 1 1 1 1
          1 0.9811 1 1 1 0.9886 1 1 1 1 1 1
          1 1 1 1 0.9981 1 1 1 1 1 1 1
          1 1 1 1 1 1 1 1 1 1 1 1
          1 1 1 1 1 1 0.9914 1 1 1 1 1
          1 1 1 1 1 1 1 1 1 1 1 1
          1 0.9843 1 0.9859 1 1 1 1 1 1 1 1
          1 0.9912 1 1 1 1 1 1 1 1 1 1
          0.9955 1 1 1 1 1 1 0.9819 1 1 1 0.9814
          1 1 1 1 1 1 1 1 1 1 1 1
          1 1 1 1 1 1 1 1 1 1 1 0.9922
          1 1 1 0.9816 1 1 1 1 1 1 1 1
          1 1 1 1 1 1 1 1 1 1 1 1
          1 0.9927 1 1 1 1 1 1 0.9947 1 1 1
          1 1 1 1 0.9915 1 1 1 1 1 1 1
          1 1 0.9908 1 1 1 1 1 0.9914 1 0.9891 1
          1 1 1 1 1 1 1 1 1 1 1 1
          1 1 1 1 1 1 1 0.9864 1 1 1 1
          1 1 1 1 1 1 1 1 1 1 1 0.99
          1 1 1 1 1 1 1 1 1 1 1 1
          1 1 1 1 1 1 1 1 1 1 1 1
          1 1 1 1 1 1 1 1 1 1 1 1
          1 0.9889 1 1 1 1 1 1 0.9904 1 1 1
          1 1 1 1 1 0.986 1 1 1 1 1 1
          1 1 1 1 1 1 0.9819 1 1 1 1 1
          1 1 0.9816 1 1 1 1 1 1 1 1 1
          1 1 1 1 1 1 1 1 0.9911 1 1 0.9933
          1 1 1 1 1 1 1 1 1 1 1 1
          1 1 1 0.9913 1 0.9913 1 1 1 1 1 1
          1 0.9878 1 0.9935 1 1 1 1 1 1 1 1
          1 1 1 1 1 0.9803 1 1 1 1 1 1
          1 1 1 1 1 1 1 1 1 1 1 1
          1 1 1 1 1 1 1 1 1 1 1 1
          1 1 1 1 1 1 1 1 0.994 1 1 1
          1 1 1 1 1 1 1 1 1 1 1 1
          1 1 0.995 1 1 1 1 1 0.9961 0.9856 1 1
          1 1 1 1 1 1 0.9864 1 1 0.9977 1 1
          1 1 1 1 1 1 1 1 1 0.985 1 1
          1 1 1 1 0.9972 1 0.9937 1 1 1 1 1
          1 1 1 1 1 0.9935 1 0.9849 1 1 1 1
          1 1 1 0.995 0.9877 1 1 1 0.9829 1 0.9928 1
          1 1 1 0.9815 1 1 1 0.9977 1 1 1 1
          1 0.9821 1 0.9821 1 1 1 1 1 1 1 1
          1 1 1 1 1 1 1 1 1 1 1 1
          1 1 1 1 1 1 1 0.9954 1 1 1 1
          0.9907 1 1 0.9839 1 1 1 1 1 0.9854 1 1
          1 1 1 1 1 1 1 1 0.9873 1 1 1
          1 1 1 1 0.9868 1 1 1 1 0.9869 1 1
          0.9827 1 1 1 0.9894 1 0.9889 1 1 1 1 1
          1 1 1 1 1 0.9874 1 1 0.9973 1 1 1
          0.9938 0.9904 1 1 1 1 1 1 1 1 1 0.9976
          1 0.9978 1 1 1 1 1 1 1 1 1 1
          1 1 1 1 1 1 0.9984 1 1 1 1 1
          1 1 1 1 1 1 1 1 1 0.9804 1 1
          1 1 1 1 1 1 0.9967 1 1 1 1 1
          1 1 1 1 1 1 1 1 1 0.9909 1 1
          1 1 1 1 1 1 1 1 1 1 1 1
          1 0.9906 0.9851 1 1 1 1 1 1 1 1 1
          1 1 1 1 1 1 1 1 1 1 1 1
          1 1 1 1 1 1 1 1 1 0.9996 1 1
          1 1 1 1 1 1 1 1 1 1 0.9872 1
          1 1 1 1 1 1 1 1 1 1 1 1
          1 1 1 0.9926 0.9927 1 1 1 1 1 1 1
          1 1 1 1 1 1 1 1 1 1 1 1
          0.9959 1 1 1 1 1 1 0.9939 1 1 1 1
          1 1 1 1 1 1 1 1 1 1 1 1
          1 1 0.989 1 1 1 1 0.9921 0.9972 1 0.9872 1
          1 1 1 0.9987 1 1 1 1 1 1 1 1
          1 1 1 1 1 1 0.9833 0.9874 1 1 1 1
          1 1 1 1 1 1 1 1 1 1 1 1
          1 0.9994 1 1 1 1 1 1 1 1 1 0.996
          1 1 1 1 1 1 1 1 1 1 1 1
          1 1 1 1 1 1 1 1 1 1 1 1
          1 1 1 1 1 1 1 1 1 1 1 1
          1 1 1 1 1 1 1 1 1 1 0.9819 1
          1 1 1 1 0.9806 1 1 1 1 1 1 0.9986
          1 1 1 1 1 1 1 0.9931 1 1 1 1
          1 1 1 1 1 0.9974 1 0.9821 1 1 1 1
          1 1 1 0.9921 1 0.9927 1 1 1 1 1 1
          1 1 0.9935 1 1 1 1 0.997 1 1 1 1
          1 1 1 1 0.9975 1 1 1 1 1 1 1
          1 1 1 1 1 1 1 1 1 0.9923 1 1
          1 1 1 1 1 1 1 1 1 1 1 0.9967
          1 1 1 1 0.9802 1 1 1 1 1 1 1
          1 1 1 1 1 1 1 1 1 1 1 0.994
          1 1 1 1 1 1 1 1 1 1 1 1
          0.988 1 1 1 1 1 1 1 1 1 1 1
          1 1 1 1 1 1 0.9834 1 1 1 0.9865 1
          1 1 1 1 1 1 1 1 1 1 1 1
          1 1 1 1 1 1 0.9922 1 1 1 0.9975 1
          1 1 1 1 1 1 1 1 1 1 1 1
          1 1 1 1 1 1 0.9898 1 1 1 1 1
          1 1 1 1 1 1 0.9957 1 1 1 1 1
          1 1 1 1 1 0.9947 1 1 1 1 1 1
          1 1 1 1 1 1 1 1 0.9993 1 1 1
          1 1 1 1 1 1 1 1 1 1 1 1
          1 1 1 1 1 1 1 1 1 1 1 1
          1 1 1 1 1 1 1 1 1 1 1 1
          1 1 1 1 1 1 1 1 0.9884 1 1 1
          1 1 1 1 1 1 1 1 1 1 1 1
          1 1 1 1 1 0.9843 1 1 1 1 1 1
          1 1 1 1 0.9912 1 0.9826 1 1 1 1 1
          1 1 1 0.9924 1 1 1 0.9903 1 1 1 1
          1 1 1 1 1 1 1 0.9845 1 1 1 0.9816
          1 1 1 1 1 1 1 1 1 1 1 0.9914
          1 1 0.9866 0.9913 1 0.9907 0.9981 1 1 1 1 1
          1 1 1 1 1 1 0.9823 1 1 1 1 1
          1 1 1 1 1 1 0.9999 1 1 1 1 1
          1 1 1 1 1 1 1 1 1 1 1 1
          1 1 1 0.9936 1 1 1 1 1 1 1 1
          1 1 1 1 1 0.9879 1 1 0.9902 0.9917 1 1
          1 1 1 1 1 1 1 1 1 1 1 1
          1 1 1 1 1 1 1 1 1 1 0.9915 1
          0.9909 1 1 1 0.9841 1 1 1 0.9975 1 1 1
          1 1 1 1 1 1 1 1 1 1 1 1
          1 1 1 1 1 0.9874 0.9908 1 1 1 1 1
          1 1 1 0.996 1 1 1 1 1 1 1 1
          1 1 1 0.9998 1 1 1 1 1 1 1 0.9939
          1 0.9871 1 1 1 1 1 0.9856 1 1 1 1
          1 1 1 1 1 1 1 0.9903 1 1 1 1
          1 0.9989 1 1 1 1 1 1 1 1 1 1
          1 1 1 1 1 1 1 1 1 1 1 1
          1 1 1 1 1 1 1 1 1 1 1 1
          1 1 1 1 1 1 1 1 1 1 1 1
          1 1 1 1 1 1 1 1 1 1 1 1
          1 1 1 1 1 1 0.9812 1 1 0.9873 0.9812 1
          1 1 1 1 1 1 1 1 1 1 1 0.9898
          0.9907 1 1 1 1 0.986 1 0.9869 1 0.9983 1 1
          1 1 1 1 1 1 1 1 1 1 1 1
          1 1 1 1 1 1 1 0.9971 1 1 1 1
          1 1 1 1 1 1 1 1 1 1 1 1
          1 1 1 1 1 1 1 1 1 1 1 1
          1 1 0.983 1 1 1 1 0.9986 1 1 1 1
          0.9992 1 1 1 1 1 1 0.9874 1 1 1 1
          1 1 1 1 1 1 1 1 1 1 1 1
          1 1 1 0.9815 1 1 1 1 1 1 1 1
          1 0.9858 0.9944 1 1 1 1 0.9996 1 1 1 1
          1 1 1 0.9922 1 0.9952 1 1 1 1 1 1
          1 1 1 1 1 1 1 1 1 1 1 1
          1 1 1 1 1 1 1 1 1 1 1 1
          1 1 0.9827 1 1 1 1 1 1 1 1 1
          1 1 1 1 1 1 1 1 0.9995 1 1 1
          1 0.9812 1 1 1 1 1 1 1 1 1 1
          1 1 1 1 1 1 1 1 1 1 1 1
          1 1 0.996 1 1 1 1 0.9968 1 1 1 1
          1 1 1 1 1 1 1 1 1 1 1 1
          1 1 1 1 1 1 1 1 1 1 1 1
        </DataArray>
        <DataArray type="Float32" Name="p_aq" NumberOfComponents="1" format="ascii">
          130000 130000 130000 130000 130000 130000 130000 130000 130000 130000 130000 130000
          130000 130000 130000 130000 130000 130000 130000 130000 130000 130000 130000 130000
          130000 130000 130000 130000 130000 130000 130000 130000 130000 130000 130000 130000
          130000 130000 130000 130000 130000 130000 130000 130000 130000 130000 130000 130000
          130000 130000 130000 130000 130000 130000 130000 130000 130000 130000 130000 130000
          130000 130000 130000 130000 130000 130000 130000 130000 130000 130000 130000 130000
          130000 130000 130000 130000 130000 130000 130000 130000 130000 130000 130000 130000
          130000 130000 130000 130000 130000 130000 130000 130000 130000 130000 130000 130000
          130000 130000 130000 130000 130000 130000 130000 130000 130000 130000 130000 130000
          130000 130000 130000 130000 130000 130000 130000 130000 130000 130000 130000 130000
          130000 130000 130000 130000 130000 130000 130000 130000 130000 130000 130000 130000
          130000 130000 130000 130000 130000 130000 130000 130000 130000 130000 130000 130000
          130000 130000 130000 130000 130000 130000 130000 130000 130000 130000 130000 130000
          130000 130000 130000 130000 130000 130000 130000 130000 130000 130000 130000 130000
          130000 130000 130000 130000 130000 130000 130000 130000 130000 130000 130000 130000
          130000 130000 130000 130000 130000 130000 130000 130000 130000 130000 130000 130000
          130000 130000 130000 130000 130000 130000 130000 130000 130000 130000 130000 130000
          130000 130000 130000 130000 130000 130000 130000 130000 130000 130000 130000 130000
          130000 130000 130000 130000 130000 130000 130000 130000 130000 130000 130000 130000
          130000 130000 130000 130000 130000 130000 130000 130000 130000 130000 130000 130000
          130000 130000 130000 130000 130000 130000 130000 130000 130000 130000 130000 130000
          130000 130000 130000 130000 130000 130000 130000 130000 130000 130000 130000 130000
          130000 130000 130000 130000 130000 130000 130000 130000 130000 130000 130000 130000
          130000 130000 130000 130000 130000 130000 130000 130000 130000 130000 130000 130000
          130000 130000 130000 130000 130000 130000 130000 130000 130000 130000 130000 130000
          130000 130000 130000 130000 130000 130000 130000 130000 130000 130000 130000 130000
          130000 130000 130000 130000 130000 130000 130000 130000 130000 130000 130000 130000
          130000 130000 130000 130000 130000 130000 130000 130000 130000 130000 130000 130000
          130000 130000 130000 130000 130000 130000 130000 130000 130000 130000 130000 130000
          130000 130000 130000 130000 130000 130000 130000 130000 130000 130000 130000 130000
          130000 130000 130000 130000 130000 130000 130000 130000 130000 130000 130000 130000
          130000 130000 130000 130000 130000 130000 130000 130000 130000 130000 130000 130000
          130000 130000 130000 130000 130000 130000 130000 130000 130000 130000 130000 130000
          130000 130000 130000 130000 130000 130000 130000 130000 130000 130000 130000 130000
          130000 130000 130000 130000 130000 130000 130000 130000 130000 130000 130000 130000
          130000 130000 130000 130000 130000 130000 130000 130000 130000 130000 130000 130000
          130000 130000 130000 130000 130000 130000 130000 130000 130000 130000 130000 130000
          130000 130000 130000 130000 130000 130000 130000 130000 130000 130000 130000 130000
          130000 130000 130000 130000 130000 130000 130000 130000 130000 130000 130000 130000
          130000 130000 130000 130000 130000 130000 130000 130000 130000 130000 130000 130000
          130000 130000 130000 130000 130000 130000 130000 130000 130000 130000 130000 130000
          130000 130000 130000 130000 130000 130000 130000 130000 130000 130000 130000 130000
          130000 130000 130000 130000 130000 130000 130000 130000 130000 130000 130000 130000
          130000 130000 130000 130000 130000 130000 130000 130000 130000 130000 130000 130000
          130000 130000 130000 130000 130000 130000 130000 130000 130000 130000 130000 130000
          130000 130000 130000 130000 130000 130000 130000 130000 130000 130000 130000 130000
          130000 130000 130000 130000 130000 130000 130000 130000 130000 130000 130000 130000
          130000 130000 130000 130000 130000 130000 130000 130000 130000 130000 130000 130000
          130000 130000 130000 130000 130000 130000 130000 130000 130000 130000 130000 130000